Title: *INCLUDE "C:/Program Files (x86)/Qucs-S/share/qucs-s/xspice_cmlib/include/ngspice_mathfunc.inc
Date: Wed Jul 24 01:32:23  2024
Plotname: Transient Analysis
Flags: real
No. Variables: 4
No. Points: 5310
Variables:
	0	time	time
	1	vo_steps	time dims=2
	2	v(vi)	voltage
	3	v(vo)	voltage dims=2
Values:
 0	0.000000000000000e+00
	0.000000000000000e+00
	0.000000000000000e+00
	0.000000000000000e+00

 1	1.000000000000000e-11
	5.000000000000000e-06
	1.000000000000000e-02
	0.000000000000000e+00

 2	2.000000000000000e-11
	0.000000000000000e+00
	2.000000000000000e-02
	0.000000000000000e+00

 3	4.000000000000000e-11
	0.000000000000000e+00
	4.000000000000000e-02
	0.000000000000000e+00

 4	8.000000000000001e-11
	0.000000000000000e+00
	8.000000000000000e-02
	0.000000000000000e+00

 5	1.600000000000000e-10
	0.000000000000000e+00
	1.600000000000000e-01
	0.000000000000000e+00

 6	3.200000000000000e-10
	0.000000000000000e+00
	3.200000000000000e-01
	0.000000000000000e+00

 7	6.400000000000001e-10
	0.000000000000000e+00
	6.400000000000000e-01
	0.000000000000000e+00

 8	1.000000000000000e-09
	0.000000000000000e+00
	1.000000000000000e+00
	0.000000000000000e+00

 9	1.064000000000000e-09
	0.000000000000000e+00
	1.000000000000000e+00
	0.000000000000000e+00

 10	1.192000000000000e-09
	0.000000000000000e+00
	1.000000000000000e+00
	0.000000000000000e+00

 11	1.448000000000000e-09
	0.000000000000000e+00
	1.000000000000000e+00
	0.000000000000000e+00

 12	1.960000000000000e-09
	0.000000000000000e+00
	1.000000000000000e+00
	0.000000000000000e+00

 13	2.960200000000000e-09
	0.000000000000000e+00
	1.000000000000000e+00
	0.000000000000000e+00

 14	3.960400000000000e-09
	0.000000000000000e+00
	1.000000000000000e+00
	0.000000000000000e+00

 15	4.960600000000000e-09
	0.000000000000000e+00
	1.000000000000000e+00
	0.000000000000000e+00

 16	5.960800000000000e-09
	0.000000000000000e+00
	1.000000000000000e+00
	0.000000000000000e+00

 17	6.960999999999999e-09
	0.000000000000000e+00
	1.000000000000000e+00
	0.000000000000000e+00

 18	7.961200000000000e-09
	0.000000000000000e+00
	1.000000000000000e+00
	0.000000000000000e+00

 19	8.961400000000000e-09
	0.000000000000000e+00
	1.000000000000000e+00
	0.000000000000000e+00

 20	9.961600000000000e-09
	0.000000000000000e+00
	1.000000000000000e+00
	0.000000000000000e+00

 21	1.096180000000000e-08
	0.000000000000000e+00
	1.000000000000000e+00
	0.000000000000000e+00

 22	1.196200000000000e-08
	0.000000000000000e+00
	1.000000000000000e+00
	0.000000000000000e+00

 23	1.296220000000000e-08
	0.000000000000000e+00
	1.000000000000000e+00
	0.000000000000000e+00

 24	1.396240000000000e-08
	0.000000000000000e+00
	1.000000000000000e+00
	0.000000000000000e+00

 25	1.496260000000000e-08
	0.000000000000000e+00
	1.000000000000000e+00
	0.000000000000000e+00

 26	1.596280000000000e-08
	0.000000000000000e+00
	1.000000000000000e+00
	0.000000000000000e+00

 27	1.696300000000000e-08
	0.000000000000000e+00
	1.000000000000000e+00
	0.000000000000000e+00

 28	1.796320000000000e-08
	0.000000000000000e+00
	1.000000000000000e+00
	0.000000000000000e+00

 29	1.896340000000000e-08
	0.000000000000000e+00
	1.000000000000000e+00
	0.000000000000000e+00

 30	1.996360000000000e-08
	0.000000000000000e+00
	1.000000000000000e+00
	0.000000000000000e+00

 31	2.096380000000000e-08
	0.000000000000000e+00
	1.000000000000000e+00
	0.000000000000000e+00

 32	2.196400000000000e-08
	0.000000000000000e+00
	1.000000000000000e+00
	0.000000000000000e+00

 33	2.296420000000000e-08
	0.000000000000000e+00
	1.000000000000000e+00
	0.000000000000000e+00

 34	2.396440000000000e-08
	0.000000000000000e+00
	1.000000000000000e+00
	0.000000000000000e+00

 35	2.496460000000000e-08
	0.000000000000000e+00
	1.000000000000000e+00
	0.000000000000000e+00

 36	2.596480000000000e-08
	0.000000000000000e+00
	1.000000000000000e+00
	0.000000000000000e+00

 37	2.696500000000000e-08
	0.000000000000000e+00
	1.000000000000000e+00
	0.000000000000000e+00

 38	2.796520000000000e-08
	0.000000000000000e+00
	1.000000000000000e+00
	0.000000000000000e+00

 39	2.896540000000000e-08
	0.000000000000000e+00
	1.000000000000000e+00
	0.000000000000000e+00

 40	2.996560000000000e-08
	0.000000000000000e+00
	1.000000000000000e+00
	0.000000000000000e+00

 41	3.096580000000000e-08
	0.000000000000000e+00
	1.000000000000000e+00
	0.000000000000000e+00

 42	3.196600000000000e-08
	0.000000000000000e+00
	1.000000000000000e+00
	0.000000000000000e+00

 43	3.296620000000000e-08
	0.000000000000000e+00
	1.000000000000000e+00
	0.000000000000000e+00

 44	3.396640000000000e-08
	0.000000000000000e+00
	1.000000000000000e+00
	0.000000000000000e+00

 45	3.496660000000000e-08
	0.000000000000000e+00
	1.000000000000000e+00
	0.000000000000000e+00

 46	3.596680000000000e-08
	0.000000000000000e+00
	1.000000000000000e+00
	0.000000000000000e+00

 47	3.696700000000000e-08
	0.000000000000000e+00
	1.000000000000000e+00
	0.000000000000000e+00

 48	3.796720000000000e-08
	0.000000000000000e+00
	1.000000000000000e+00
	0.000000000000000e+00

 49	3.896740000000000e-08
	0.000000000000000e+00
	1.000000000000000e+00
	0.000000000000000e+00

 50	3.996760000000000e-08
	0.000000000000000e+00
	1.000000000000000e+00
	0.000000000000000e+00

 51	4.096780000000000e-08
	0.000000000000000e+00
	1.000000000000000e+00
	0.000000000000000e+00

 52	4.196800000000000e-08
	0.000000000000000e+00
	1.000000000000000e+00
	0.000000000000000e+00

 53	4.296820000000000e-08
	0.000000000000000e+00
	1.000000000000000e+00
	0.000000000000000e+00

 54	4.396840000000000e-08
	0.000000000000000e+00
	1.000000000000000e+00
	0.000000000000000e+00

 55	4.496860000000000e-08
	0.000000000000000e+00
	1.000000000000000e+00
	0.000000000000000e+00

 56	4.596880000000000e-08
	0.000000000000000e+00
	1.000000000000000e+00
	0.000000000000000e+00

 57	4.696900000000000e-08
	0.000000000000000e+00
	1.000000000000000e+00
	0.000000000000000e+00

 58	4.796920000000000e-08
	0.000000000000000e+00
	1.000000000000000e+00
	0.000000000000000e+00

 59	4.896940000000000e-08
	0.000000000000000e+00
	1.000000000000000e+00
	0.000000000000000e+00

 60	4.996960000000000e-08
	0.000000000000000e+00
	1.000000000000000e+00
	0.000000000000000e+00

 61	5.096980000000000e-08
	0.000000000000000e+00
	1.000000000000000e+00
	0.000000000000000e+00

 62	5.197000000000000e-08
	0.000000000000000e+00
	1.000000000000000e+00
	0.000000000000000e+00

 63	5.297020000000000e-08
	0.000000000000000e+00
	1.000000000000000e+00
	0.000000000000000e+00

 64	5.397040000000000e-08
	0.000000000000000e+00
	1.000000000000000e+00
	0.000000000000000e+00

 65	5.497060000000000e-08
	0.000000000000000e+00
	1.000000000000000e+00
	0.000000000000000e+00

 66	5.597080000000000e-08
	0.000000000000000e+00
	1.000000000000000e+00
	0.000000000000000e+00

 67	5.697100000000000e-08
	0.000000000000000e+00
	1.000000000000000e+00
	0.000000000000000e+00

 68	5.797120000000000e-08
	0.000000000000000e+00
	1.000000000000000e+00
	0.000000000000000e+00

 69	5.897140000000000e-08
	0.000000000000000e+00
	1.000000000000000e+00
	0.000000000000000e+00

 70	5.997160000000001e-08
	0.000000000000000e+00
	1.000000000000000e+00
	0.000000000000000e+00

 71	6.097180000000001e-08
	0.000000000000000e+00
	1.000000000000000e+00
	0.000000000000000e+00

 72	6.197200000000002e-08
	0.000000000000000e+00
	1.000000000000000e+00
	0.000000000000000e+00

 73	6.297220000000003e-08
	0.000000000000000e+00
	1.000000000000000e+00
	0.000000000000000e+00

 74	6.397240000000003e-08
	0.000000000000000e+00
	1.000000000000000e+00
	0.000000000000000e+00

 75	6.497260000000004e-08
	0.000000000000000e+00
	1.000000000000000e+00
	0.000000000000000e+00

 76	6.597280000000005e-08
	0.000000000000000e+00
	1.000000000000000e+00
	0.000000000000000e+00

 77	6.697300000000005e-08
	0.000000000000000e+00
	1.000000000000000e+00
	0.000000000000000e+00

 78	6.797320000000006e-08
	0.000000000000000e+00
	1.000000000000000e+00
	0.000000000000000e+00

 79	6.897340000000007e-08
	0.000000000000000e+00
	1.000000000000000e+00
	0.000000000000000e+00

 80	6.997360000000007e-08
	0.000000000000000e+00
	1.000000000000000e+00
	0.000000000000000e+00

 81	7.097380000000008e-08
	0.000000000000000e+00
	1.000000000000000e+00
	0.000000000000000e+00

 82	7.197400000000009e-08
	0.000000000000000e+00
	1.000000000000000e+00
	0.000000000000000e+00

 83	7.297420000000009e-08
	0.000000000000000e+00
	1.000000000000000e+00
	0.000000000000000e+00

 84	7.397440000000010e-08
	0.000000000000000e+00
	1.000000000000000e+00
	0.000000000000000e+00

 85	7.497460000000011e-08
	0.000000000000000e+00
	1.000000000000000e+00
	0.000000000000000e+00

 86	7.597480000000011e-08
	0.000000000000000e+00
	1.000000000000000e+00
	0.000000000000000e+00

 87	7.697500000000012e-08
	0.000000000000000e+00
	1.000000000000000e+00
	0.000000000000000e+00

 88	7.797520000000013e-08
	0.000000000000000e+00
	1.000000000000000e+00
	0.000000000000000e+00

 89	7.897540000000013e-08
	0.000000000000000e+00
	1.000000000000000e+00
	0.000000000000000e+00

 90	7.997560000000014e-08
	0.000000000000000e+00
	1.000000000000000e+00
	0.000000000000000e+00

 91	8.097580000000014e-08
	0.000000000000000e+00
	1.000000000000000e+00
	0.000000000000000e+00

 92	8.197600000000015e-08
	0.000000000000000e+00
	1.000000000000000e+00
	0.000000000000000e+00

 93	8.297620000000016e-08
	0.000000000000000e+00
	1.000000000000000e+00
	0.000000000000000e+00

 94	8.397640000000016e-08
	0.000000000000000e+00
	1.000000000000000e+00
	0.000000000000000e+00

 95	8.497660000000017e-08
	0.000000000000000e+00
	1.000000000000000e+00
	0.000000000000000e+00

 96	8.597680000000018e-08
	0.000000000000000e+00
	1.000000000000000e+00
	0.000000000000000e+00

 97	8.697700000000018e-08
	0.000000000000000e+00
	1.000000000000000e+00
	0.000000000000000e+00

 98	8.797720000000019e-08
	0.000000000000000e+00
	1.000000000000000e+00
	0.000000000000000e+00

 99	8.897740000000020e-08
	0.000000000000000e+00
	1.000000000000000e+00
	0.000000000000000e+00

 100	8.997760000000020e-08
	0.000000000000000e+00
	1.000000000000000e+00
	0.000000000000000e+00

 101	9.097780000000021e-08
	0.000000000000000e+00
	1.000000000000000e+00
	0.000000000000000e+00

 102	9.197800000000022e-08
	0.000000000000000e+00
	1.000000000000000e+00
	0.000000000000000e+00

 103	9.297820000000022e-08
	0.000000000000000e+00
	1.000000000000000e+00
	0.000000000000000e+00

 104	9.397840000000023e-08
	0.000000000000000e+00
	1.000000000000000e+00
	0.000000000000000e+00

 105	9.497860000000024e-08
	0.000000000000000e+00
	1.000000000000000e+00
	0.000000000000000e+00

 106	9.597880000000024e-08
	0.000000000000000e+00
	1.000000000000000e+00
	0.000000000000000e+00

 107	9.697900000000025e-08
	0.000000000000000e+00
	1.000000000000000e+00
	0.000000000000000e+00

 108	9.797920000000026e-08
	0.000000000000000e+00
	1.000000000000000e+00
	0.000000000000000e+00

 109	9.897940000000026e-08
	0.000000000000000e+00
	1.000000000000000e+00
	0.000000000000000e+00

 110	9.997960000000027e-08
	0.000000000000000e+00
	1.000000000000000e+00
	0.000000000000000e+00

 111	1.009798000000003e-07
	0.000000000000000e+00
	1.000000000000000e+00
	0.000000000000000e+00

 112	1.010000000000000e-07
	0.000000000000000e+00
	1.000000000000000e+00
	0.000000000000000e+00

 113	1.010403999999994e-07
	0.000000000000000e+00
	9.596000000005683e-01
	0.000000000000000e+00

 114	1.011211999999983e-07
	0.000000000000000e+00
	8.788000000017049e-01
	0.000000000000000e+00

 115	1.012827999999960e-07
	0.000000000000000e+00
	7.172000000039780e-01
	0.000000000000000e+00

 116	1.016059999999915e-07
	0.000000000000000e+00
	3.940000000085244e-01
	0.000000000000000e+00

 117	1.020000000000000e-07
	0.000000000000000e+00
	0.000000000000000e+00
	0.000000000000000e+00

 118	1.020646399999991e-07
	0.000000000000000e+00
	0.000000000000000e+00
	0.000000000000000e+00

 119	1.021939199999973e-07
	0.000000000000000e+00
	0.000000000000000e+00
	0.000000000000000e+00

 120	1.024524799999936e-07
	0.000000000000000e+00
	0.000000000000000e+00
	0.000000000000000e+00

 121	1.029695999999863e-07
	0.000000000000000e+00
	0.000000000000000e+00
	0.000000000000000e+00

 122	1.039697999999864e-07
	0.000000000000000e+00
	0.000000000000000e+00
	0.000000000000000e+00

 123	1.049699999999864e-07
	0.000000000000000e+00
	0.000000000000000e+00
	0.000000000000000e+00

 124	1.059701999999864e-07
	0.000000000000000e+00
	0.000000000000000e+00
	0.000000000000000e+00

 125	1.069703999999864e-07
	0.000000000000000e+00
	0.000000000000000e+00
	0.000000000000000e+00

 126	1.079705999999864e-07
	0.000000000000000e+00
	0.000000000000000e+00
	0.000000000000000e+00

 127	1.089707999999864e-07
	0.000000000000000e+00
	0.000000000000000e+00
	0.000000000000000e+00

 128	1.099709999999864e-07
	0.000000000000000e+00
	0.000000000000000e+00
	0.000000000000000e+00

 129	1.109711999999864e-07
	0.000000000000000e+00
	0.000000000000000e+00
	0.000000000000000e+00

 130	1.119713999999864e-07
	0.000000000000000e+00
	0.000000000000000e+00
	0.000000000000000e+00

 131	1.129715999999864e-07
	0.000000000000000e+00
	0.000000000000000e+00
	0.000000000000000e+00

 132	1.139717999999864e-07
	0.000000000000000e+00
	0.000000000000000e+00
	0.000000000000000e+00

 133	1.149719999999864e-07
	0.000000000000000e+00
	0.000000000000000e+00
	0.000000000000000e+00

 134	1.159721999999864e-07
	0.000000000000000e+00
	0.000000000000000e+00
	0.000000000000000e+00

 135	1.169723999999864e-07
	0.000000000000000e+00
	0.000000000000000e+00
	0.000000000000000e+00

 136	1.179725999999864e-07
	0.000000000000000e+00
	0.000000000000000e+00
	0.000000000000000e+00

 137	1.189727999999865e-07
	0.000000000000000e+00
	0.000000000000000e+00
	0.000000000000000e+00

 138	1.199729999999865e-07
	0.000000000000000e+00
	0.000000000000000e+00
	0.000000000000000e+00

 139	1.209731999999865e-07
	0.000000000000000e+00
	0.000000000000000e+00
	0.000000000000000e+00

 140	1.219733999999865e-07
	0.000000000000000e+00
	0.000000000000000e+00
	0.000000000000000e+00

 141	1.229735999999865e-07
	0.000000000000000e+00
	0.000000000000000e+00
	0.000000000000000e+00

 142	1.239737999999865e-07
	0.000000000000000e+00
	0.000000000000000e+00
	0.000000000000000e+00

 143	1.249739999999865e-07
	0.000000000000000e+00
	0.000000000000000e+00
	0.000000000000000e+00

 144	1.259741999999865e-07
	0.000000000000000e+00
	0.000000000000000e+00
	0.000000000000000e+00

 145	1.269743999999865e-07
	0.000000000000000e+00
	0.000000000000000e+00
	0.000000000000000e+00

 146	1.279745999999865e-07
	0.000000000000000e+00
	0.000000000000000e+00
	0.000000000000000e+00

 147	1.289747999999865e-07
	0.000000000000000e+00
	0.000000000000000e+00
	0.000000000000000e+00

 148	1.299749999999865e-07
	0.000000000000000e+00
	0.000000000000000e+00
	0.000000000000000e+00

 149	1.309751999999865e-07
	0.000000000000000e+00
	0.000000000000000e+00
	0.000000000000000e+00

 150	1.319753999999865e-07
	0.000000000000000e+00
	0.000000000000000e+00
	0.000000000000000e+00

 151	1.329755999999865e-07
	0.000000000000000e+00
	0.000000000000000e+00
	0.000000000000000e+00

 152	1.339757999999866e-07
	0.000000000000000e+00
	0.000000000000000e+00
	0.000000000000000e+00

 153	1.349759999999866e-07
	0.000000000000000e+00
	0.000000000000000e+00
	0.000000000000000e+00

 154	1.359761999999866e-07
	0.000000000000000e+00
	0.000000000000000e+00
	0.000000000000000e+00

 155	1.369763999999866e-07
	0.000000000000000e+00
	0.000000000000000e+00
	0.000000000000000e+00

 156	1.379765999999866e-07
	0.000000000000000e+00
	0.000000000000000e+00
	0.000000000000000e+00

 157	1.389767999999866e-07
	0.000000000000000e+00
	0.000000000000000e+00
	0.000000000000000e+00

 158	1.399769999999866e-07
	0.000000000000000e+00
	0.000000000000000e+00
	0.000000000000000e+00

 159	1.409771999999866e-07
	0.000000000000000e+00
	0.000000000000000e+00
	0.000000000000000e+00

 160	1.419773999999866e-07
	0.000000000000000e+00
	0.000000000000000e+00
	0.000000000000000e+00

 161	1.429775999999866e-07
	0.000000000000000e+00
	0.000000000000000e+00
	0.000000000000000e+00

 162	1.439777999999866e-07
	0.000000000000000e+00
	0.000000000000000e+00
	0.000000000000000e+00

 163	1.449779999999866e-07
	0.000000000000000e+00
	0.000000000000000e+00
	0.000000000000000e+00

 164	1.459781999999866e-07
	0.000000000000000e+00
	0.000000000000000e+00
	0.000000000000000e+00

 165	1.469783999999866e-07
	0.000000000000000e+00
	0.000000000000000e+00
	0.000000000000000e+00

 166	1.479785999999866e-07
	0.000000000000000e+00
	0.000000000000000e+00
	0.000000000000000e+00

 167	1.489787999999866e-07
	0.000000000000000e+00
	0.000000000000000e+00
	0.000000000000000e+00

 168	1.499789999999867e-07
	0.000000000000000e+00
	0.000000000000000e+00
	0.000000000000000e+00

 169	1.509791999999867e-07
	0.000000000000000e+00
	0.000000000000000e+00
	0.000000000000000e+00

 170	1.519793999999867e-07
	0.000000000000000e+00
	0.000000000000000e+00
	0.000000000000000e+00

 171	1.529795999999867e-07
	0.000000000000000e+00
	0.000000000000000e+00
	0.000000000000000e+00

 172	1.539797999999867e-07
	0.000000000000000e+00
	0.000000000000000e+00
	0.000000000000000e+00

 173	1.549799999999867e-07
	0.000000000000000e+00
	0.000000000000000e+00
	0.000000000000000e+00

 174	1.559801999999867e-07
	0.000000000000000e+00
	0.000000000000000e+00
	0.000000000000000e+00

 175	1.569803999999867e-07
	0.000000000000000e+00
	0.000000000000000e+00
	0.000000000000000e+00

 176	1.579805999999867e-07
	0.000000000000000e+00
	0.000000000000000e+00
	0.000000000000000e+00

 177	1.589807999999867e-07
	0.000000000000000e+00
	0.000000000000000e+00
	0.000000000000000e+00

 178	1.599809999999867e-07
	0.000000000000000e+00
	0.000000000000000e+00
	0.000000000000000e+00

 179	1.609811999999867e-07
	0.000000000000000e+00
	0.000000000000000e+00
	0.000000000000000e+00

 180	1.619813999999867e-07
	0.000000000000000e+00
	0.000000000000000e+00
	0.000000000000000e+00

 181	1.629815999999867e-07
	0.000000000000000e+00
	0.000000000000000e+00
	0.000000000000000e+00

 182	1.639817999999867e-07
	0.000000000000000e+00
	0.000000000000000e+00
	0.000000000000000e+00

 183	1.649819999999868e-07
	0.000000000000000e+00
	0.000000000000000e+00
	0.000000000000000e+00

 184	1.659821999999868e-07
	0.000000000000000e+00
	0.000000000000000e+00
	0.000000000000000e+00

 185	1.669823999999868e-07
	0.000000000000000e+00
	0.000000000000000e+00
	0.000000000000000e+00

 186	1.679825999999868e-07
	0.000000000000000e+00
	0.000000000000000e+00
	0.000000000000000e+00

 187	1.689827999999868e-07
	0.000000000000000e+00
	0.000000000000000e+00
	0.000000000000000e+00

 188	1.699829999999868e-07
	0.000000000000000e+00
	0.000000000000000e+00
	0.000000000000000e+00

 189	1.709831999999868e-07
	0.000000000000000e+00
	0.000000000000000e+00
	0.000000000000000e+00

 190	1.719833999999868e-07
	0.000000000000000e+00
	0.000000000000000e+00
	0.000000000000000e+00

 191	1.729835999999868e-07
	0.000000000000000e+00
	0.000000000000000e+00
	0.000000000000000e+00

 192	1.739837999999868e-07
	0.000000000000000e+00
	0.000000000000000e+00
	0.000000000000000e+00

 193	1.749839999999868e-07
	0.000000000000000e+00
	0.000000000000000e+00
	0.000000000000000e+00

 194	1.759841999999868e-07
	0.000000000000000e+00
	0.000000000000000e+00
	0.000000000000000e+00

 195	1.769843999999868e-07
	0.000000000000000e+00
	0.000000000000000e+00
	0.000000000000000e+00

 196	1.779845999999868e-07
	0.000000000000000e+00
	0.000000000000000e+00
	0.000000000000000e+00

 197	1.789847999999868e-07
	0.000000000000000e+00
	0.000000000000000e+00
	0.000000000000000e+00

 198	1.799849999999869e-07
	0.000000000000000e+00
	0.000000000000000e+00
	0.000000000000000e+00

 199	1.809851999999869e-07
	0.000000000000000e+00
	0.000000000000000e+00
	0.000000000000000e+00

 200	1.819853999999869e-07
	0.000000000000000e+00
	0.000000000000000e+00
	0.000000000000000e+00

 201	1.829855999999869e-07
	0.000000000000000e+00
	0.000000000000000e+00
	0.000000000000000e+00

 202	1.839857999999869e-07
	0.000000000000000e+00
	0.000000000000000e+00
	0.000000000000000e+00

 203	1.849859999999869e-07
	0.000000000000000e+00
	0.000000000000000e+00
	0.000000000000000e+00

 204	1.859861999999869e-07
	0.000000000000000e+00
	0.000000000000000e+00
	0.000000000000000e+00

 205	1.869863999999869e-07
	0.000000000000000e+00
	0.000000000000000e+00
	0.000000000000000e+00

 206	1.879865999999869e-07
	0.000000000000000e+00
	0.000000000000000e+00
	0.000000000000000e+00

 207	1.889867999999869e-07
	0.000000000000000e+00
	0.000000000000000e+00
	0.000000000000000e+00

 208	1.899869999999869e-07
	0.000000000000000e+00
	0.000000000000000e+00
	0.000000000000000e+00

 209	1.909871999999869e-07
	0.000000000000000e+00
	0.000000000000000e+00
	0.000000000000000e+00

 210	1.919873999999869e-07
	0.000000000000000e+00
	0.000000000000000e+00
	0.000000000000000e+00

 211	1.929875999999869e-07
	0.000000000000000e+00
	0.000000000000000e+00
	0.000000000000000e+00

 212	1.939877999999869e-07
	0.000000000000000e+00
	0.000000000000000e+00
	0.000000000000000e+00

 213	1.949879999999869e-07
	0.000000000000000e+00
	0.000000000000000e+00
	0.000000000000000e+00

 214	1.959881999999870e-07
	0.000000000000000e+00
	0.000000000000000e+00
	0.000000000000000e+00

 215	1.969883999999870e-07
	0.000000000000000e+00
	0.000000000000000e+00
	0.000000000000000e+00

 216	1.979885999999870e-07
	0.000000000000000e+00
	0.000000000000000e+00
	0.000000000000000e+00

 217	1.989887999999870e-07
	0.000000000000000e+00
	0.000000000000000e+00
	0.000000000000000e+00

 218	1.999889999999870e-07
	0.000000000000000e+00
	0.000000000000000e+00
	0.000000000000000e+00

 219	2.009891999999870e-07
	0.000000000000000e+00
	0.000000000000000e+00
	0.000000000000000e+00

 220	2.019893999999870e-07
	0.000000000000000e+00
	0.000000000000000e+00
	0.000000000000000e+00

 221	2.020000000000000e-07
	0.000000000000000e+00
	0.000000000000000e+00
	0.000000000000000e+00

 222	2.020212000000260e-07
	0.000000000000000e+00
	2.120000002602795e-02
	0.000000000000000e+00

 223	2.020636000000781e-07
	0.000000000000000e+00
	6.360000007808385e-02
	0.000000000000000e+00

 224	2.021484000001822e-07
	0.000000000000000e+00
	1.484000001821957e-01
	0.000000000000000e+00

 225	2.023180000003904e-07
	0.000000000000000e+00
	3.180000003904193e-01
	0.000000000000000e+00

 226	2.026572000008069e-07
	0.000000000000000e+00
	6.572000008068665e-01
	0.000000000000000e+00

 227	2.030000000000000e-07
	0.000000000000000e+00
	9.999999999999957e-01
	0.000000000000000e+00

 228	2.030678400000833e-07
	0.000000000000000e+00
	1.000000000000000e+00
	0.000000000000000e+00

 229	2.032035200002499e-07
	0.000000000000000e+00
	1.000000000000000e+00
	0.000000000000000e+00

 230	2.034748800005830e-07
	0.000000000000000e+00
	1.000000000000000e+00
	0.000000000000000e+00

 231	2.040176000012493e-07
	0.000000000000000e+00
	1.000000000000000e+00
	0.000000000000000e+00

 232	2.050178000012494e-07
	0.000000000000000e+00
	1.000000000000000e+00
	0.000000000000000e+00

 233	2.060180000012494e-07
	0.000000000000000e+00
	1.000000000000000e+00
	0.000000000000000e+00

 234	2.070182000012494e-07
	0.000000000000000e+00
	1.000000000000000e+00
	0.000000000000000e+00

 235	2.080184000012494e-07
	0.000000000000000e+00
	1.000000000000000e+00
	0.000000000000000e+00

 236	2.090186000012494e-07
	0.000000000000000e+00
	1.000000000000000e+00
	0.000000000000000e+00

 237	2.100188000012494e-07
	0.000000000000000e+00
	1.000000000000000e+00
	0.000000000000000e+00

 238	2.110190000012494e-07
	0.000000000000000e+00
	1.000000000000000e+00
	0.000000000000000e+00

 239	2.120192000012494e-07
	0.000000000000000e+00
	1.000000000000000e+00
	0.000000000000000e+00

 240	2.130194000012494e-07
	0.000000000000000e+00
	1.000000000000000e+00
	0.000000000000000e+00

 241	2.140196000012494e-07
	0.000000000000000e+00
	1.000000000000000e+00
	0.000000000000000e+00

 242	2.150198000012494e-07
	0.000000000000000e+00
	1.000000000000000e+00
	0.000000000000000e+00

 243	2.160200000012494e-07
	0.000000000000000e+00
	1.000000000000000e+00
	0.000000000000000e+00

 244	2.170202000012494e-07
	0.000000000000000e+00
	1.000000000000000e+00
	0.000000000000000e+00

 245	2.180204000012494e-07
	0.000000000000000e+00
	1.000000000000000e+00
	0.000000000000000e+00

 246	2.190206000012494e-07
	0.000000000000000e+00
	1.000000000000000e+00
	0.000000000000000e+00

 247	2.200208000012495e-07
	0.000000000000000e+00
	1.000000000000000e+00
	0.000000000000000e+00

 248	2.210210000012495e-07
	0.000000000000000e+00
	1.000000000000000e+00
	0.000000000000000e+00

 249	2.220212000012495e-07
	0.000000000000000e+00
	1.000000000000000e+00
	0.000000000000000e+00

 250	2.230214000012495e-07
	0.000000000000000e+00
	1.000000000000000e+00
	0.000000000000000e+00

 251	2.240216000012495e-07
	0.000000000000000e+00
	1.000000000000000e+00
	0.000000000000000e+00

 252	2.250218000012495e-07
	0.000000000000000e+00
	1.000000000000000e+00
	0.000000000000000e+00

 253	2.260220000012495e-07
	0.000000000000000e+00
	1.000000000000000e+00
	0.000000000000000e+00

 254	2.270222000012495e-07
	0.000000000000000e+00
	1.000000000000000e+00
	0.000000000000000e+00

 255	2.280224000012495e-07
	0.000000000000000e+00
	1.000000000000000e+00
	0.000000000000000e+00

 256	2.290226000012495e-07
	0.000000000000000e+00
	1.000000000000000e+00
	0.000000000000000e+00

 257	2.300228000012495e-07
	0.000000000000000e+00
	1.000000000000000e+00
	0.000000000000000e+00

 258	2.310230000012495e-07
	0.000000000000000e+00
	1.000000000000000e+00
	0.000000000000000e+00

 259	2.320232000012495e-07
	0.000000000000000e+00
	1.000000000000000e+00
	0.000000000000000e+00

 260	2.330234000012495e-07
	0.000000000000000e+00
	1.000000000000000e+00
	0.000000000000000e+00

 261	2.340236000012495e-07
	0.000000000000000e+00
	1.000000000000000e+00
	0.000000000000000e+00

 262	2.350238000012495e-07
	0.000000000000000e+00
	1.000000000000000e+00
	0.000000000000000e+00

 263	2.360240000012496e-07
	0.000000000000000e+00
	1.000000000000000e+00
	0.000000000000000e+00

 264	2.370242000012496e-07
	0.000000000000000e+00
	1.000000000000000e+00
	0.000000000000000e+00

 265	2.380244000012496e-07
	0.000000000000000e+00
	1.000000000000000e+00
	0.000000000000000e+00

 266	2.390246000012496e-07
	0.000000000000000e+00
	1.000000000000000e+00
	0.000000000000000e+00

 267	2.400248000012496e-07
	0.000000000000000e+00
	1.000000000000000e+00
	0.000000000000000e+00

 268	2.410250000012496e-07
	0.000000000000000e+00
	1.000000000000000e+00
	0.000000000000000e+00

 269	2.420252000012496e-07
	0.000000000000000e+00
	1.000000000000000e+00
	0.000000000000000e+00

 270	2.430254000012496e-07
	0.000000000000000e+00
	1.000000000000000e+00
	0.000000000000000e+00

 271	2.440256000012496e-07
	0.000000000000000e+00
	1.000000000000000e+00
	0.000000000000000e+00

 272	2.450258000012496e-07
	0.000000000000000e+00
	1.000000000000000e+00
	0.000000000000000e+00

 273	2.460260000012496e-07
	0.000000000000000e+00
	1.000000000000000e+00
	0.000000000000000e+00

 274	2.470262000012496e-07
	0.000000000000000e+00
	1.000000000000000e+00
	0.000000000000000e+00

 275	2.480264000012496e-07
	0.000000000000000e+00
	1.000000000000000e+00
	0.000000000000000e+00

 276	2.490266000012496e-07
	0.000000000000000e+00
	1.000000000000000e+00
	0.000000000000000e+00

 277	2.500268000012496e-07
	0.000000000000000e+00
	1.000000000000000e+00
	0.000000000000000e+00

 278	2.510270000012497e-07
	0.000000000000000e+00
	1.000000000000000e+00
	0.000000000000000e+00

 279	2.520272000012497e-07
	0.000000000000000e+00
	1.000000000000000e+00
	0.000000000000000e+00

 280	2.530274000012497e-07
	0.000000000000000e+00
	1.000000000000000e+00
	0.000000000000000e+00

 281	2.540276000012497e-07
	0.000000000000000e+00
	1.000000000000000e+00
	0.000000000000000e+00

 282	2.550278000012497e-07
	0.000000000000000e+00
	1.000000000000000e+00
	0.000000000000000e+00

 283	2.560280000012497e-07
	0.000000000000000e+00
	1.000000000000000e+00
	0.000000000000000e+00

 284	2.570282000012497e-07
	0.000000000000000e+00
	1.000000000000000e+00
	0.000000000000000e+00

 285	2.580284000012497e-07
	0.000000000000000e+00
	1.000000000000000e+00
	0.000000000000000e+00

 286	2.590286000012497e-07
	0.000000000000000e+00
	1.000000000000000e+00
	0.000000000000000e+00

 287	2.600288000012497e-07
	0.000000000000000e+00
	1.000000000000000e+00
	0.000000000000000e+00

 288	2.610290000012497e-07
	0.000000000000000e+00
	1.000000000000000e+00
	0.000000000000000e+00

 289	2.620292000012497e-07
	0.000000000000000e+00
	1.000000000000000e+00
	0.000000000000000e+00

 290	2.630294000012497e-07
	0.000000000000000e+00
	1.000000000000000e+00
	0.000000000000000e+00

 291	2.640296000012497e-07
	0.000000000000000e+00
	1.000000000000000e+00
	0.000000000000000e+00

 292	2.650298000012497e-07
	0.000000000000000e+00
	1.000000000000000e+00
	0.000000000000000e+00

 293	2.660300000012498e-07
	0.000000000000000e+00
	1.000000000000000e+00
	0.000000000000000e+00

 294	2.670302000012498e-07
	0.000000000000000e+00
	1.000000000000000e+00
	0.000000000000000e+00

 295	2.680304000012498e-07
	0.000000000000000e+00
	1.000000000000000e+00
	0.000000000000000e+00

 296	2.690306000012498e-07
	0.000000000000000e+00
	1.000000000000000e+00
	0.000000000000000e+00

 297	2.700308000012498e-07
	0.000000000000000e+00
	1.000000000000000e+00
	0.000000000000000e+00

 298	2.710310000012498e-07
	0.000000000000000e+00
	1.000000000000000e+00
	0.000000000000000e+00

 299	2.720312000012498e-07
	0.000000000000000e+00
	1.000000000000000e+00
	0.000000000000000e+00

 300	2.730314000012498e-07
	0.000000000000000e+00
	1.000000000000000e+00
	0.000000000000000e+00

 301	2.740316000012498e-07
	0.000000000000000e+00
	1.000000000000000e+00
	0.000000000000000e+00

 302	2.750318000012498e-07
	0.000000000000000e+00
	1.000000000000000e+00
	0.000000000000000e+00

 303	2.760320000012498e-07
	0.000000000000000e+00
	1.000000000000000e+00
	0.000000000000000e+00

 304	2.770322000012498e-07
	0.000000000000000e+00
	1.000000000000000e+00
	0.000000000000000e+00

 305	2.780324000012498e-07
	0.000000000000000e+00
	1.000000000000000e+00
	0.000000000000000e+00

 306	2.790326000012498e-07
	0.000000000000000e+00
	1.000000000000000e+00
	0.000000000000000e+00
